Program Version,EnergyPlus, Version 9.5.0-de239b2e5f, YMD=2021.08.22 19:26
1,5,Environment Title[],Latitude[deg],Longitude[deg],Time Zone[],Elevation[m]
2,8,Day of Simulation[],Month[],Day of Month[],DST Indicator[1=yes 0=no],Hour[],StartMinute[],EndMinute[],DayType
3,5,Cumulative Day of Simulation[],Month[],Day of Month[],DST Indicator[1=yes 0=no],DayType  ! When Daily Report Variables Requested
4,2,Cumulative Days of Simulation[],Month[]  ! When Monthly Report Variables Requested
5,1,Cumulative Days of Simulation[] ! When Run Period Report Variables Requested
6,1,Calendar Year of Simulation[] ! When Annual Report Variables Requested
7,1,Environment,Site Outdoor Air Drybulb Temperature [C] !Hourly
45,1,ZONE ONE,Zone Mean Air Temperature [C] !Hourly
End of Data Dictionary
1,DENVER CENTENNIAL  GOLDEN   N ANN HTG 99% CONDNS DB,  39.74,-105.18,  -7.00,1829.00
2,1,12,21, 0, 1, 0.00,60.00,WinterDesignDay
7,-15.5
45,-18.21135382055015
2,1,12,21, 0, 2, 0.00,60.00,WinterDesignDay
7,-15.5
45,-18.211435040051027
2,1,12,21, 0, 3, 0.00,60.00,WinterDesignDay
7,-15.5
45,-18.21151497672882
2,1,12,21, 0, 4, 0.00,60.00,WinterDesignDay
7,-15.5
45,-18.211593650816626
2,1,12,21, 0, 5, 0.00,60.00,WinterDesignDay
7,-15.5
45,-18.211671082229399
2,1,12,21, 0, 6, 0.00,60.00,WinterDesignDay
7,-15.5
45,-18.211747290569023
2,1,12,21, 0, 7, 0.00,60.00,WinterDesignDay
7,-15.5
45,-18.21182229512907
2,1,12,21, 0, 8, 0.00,60.00,WinterDesignDay
7,-15.5
45,-18.211896114899724
2,1,12,21, 0, 9, 0.00,60.00,WinterDesignDay
7,-15.5
45,-18.21196876857245
2,1,12,21, 0,10, 0.00,60.00,WinterDesignDay
7,-15.5
45,-18.212040274544689
2,1,12,21, 0,11, 0.00,60.00,WinterDesignDay
7,-15.5
45,-18.21211065092444
2,1,12,21, 0,12, 0.00,60.00,WinterDesignDay
7,-15.5
45,-18.212179915534788
2,1,12,21, 0,13, 0.00,60.00,WinterDesignDay
7,-15.5
45,-18.21224808591835
2,1,12,21, 0,14, 0.00,60.00,WinterDesignDay
7,-15.5
45,-18.21231517934165
2,1,12,21, 0,15, 0.00,60.00,WinterDesignDay
7,-15.5
45,-18.212381212799476
2,1,12,21, 0,16, 0.00,60.00,WinterDesignDay
7,-15.5
45,-18.2124462030191
2,1,12,21, 0,17, 0.00,60.00,WinterDesignDay
7,-15.5
45,-18.212510166464456
2,1,12,21, 0,18, 0.00,60.00,WinterDesignDay
7,-15.5
45,-18.212573119340303
2,1,12,21, 0,19, 0.00,60.00,WinterDesignDay
7,-15.5
45,-18.212635077596226
2,1,12,21, 0,20, 0.00,60.00,WinterDesignDay
7,-15.5
45,-18.212696056930669
2,1,12,21, 0,21, 0.00,60.00,WinterDesignDay
7,-15.5
45,-18.21275607279486
2,1,12,21, 0,22, 0.00,60.00,WinterDesignDay
7,-15.5
45,-18.21281514039671
2,1,12,21, 0,23, 0.00,60.00,WinterDesignDay
7,-15.5
45,-18.21287327470455
2,1,12,21, 0,24, 0.00,60.00,WinterDesignDay
7,-15.5
45,-18.212930490450967
1,DENVER CENTENNIAL  GOLDEN   N ANN CLG 1% CONDNS DB=>MWB,  39.74,-105.18,  -7.00,1829.00
2,1, 7,21, 0, 1, 0.00,60.00,SummerDesignDay
7,18.966
45,29.07860753164146
2,1, 7,21, 0, 2, 0.00,60.00,SummerDesignDay
7,18.244
45,28.792642010485435
2,1, 7,21, 0, 3, 0.00,60.00,SummerDesignDay
7,17.731
45,28.51480031501084
2,1, 7,21, 0, 4, 0.00,60.00,SummerDesignDay
7,17.275000000000003
45,28.23972396321397
2,1, 7,21, 0, 5, 0.00,60.00,SummerDesignDay
7,16.913999999999999
45,27.965695005605914
2,1, 7,21, 0, 6, 0.00,60.00,SummerDesignDay
7,16.990000000000003
45,27.869083500476529
2,1, 7,21, 0, 7, 0.00,60.00,SummerDesignDay
7,17.769
45,28.19646835499543
2,1, 7,21, 0, 8, 0.00,60.00,SummerDesignDay
7,19.783
45,28.553245131123345
2,1, 7,21, 0, 9, 0.00,60.00,SummerDesignDay
7,22.557
45,29.00874210641801
2,1, 7,21, 0,10, 0.00,60.00,SummerDesignDay
7,25.255000000000004
45,29.511977593628655
2,1, 7,21, 0,11, 0.00,60.00,SummerDesignDay
7,27.649
45,29.96118794179614
2,1, 7,21, 0,12, 0.00,60.00,SummerDesignDay
7,29.454
45,30.322886479309515
2,1, 7,21, 0,13, 0.00,60.00,SummerDesignDay
7,30.784
45,30.645376401900248
2,1, 7,21, 0,14, 0.00,60.00,SummerDesignDay
7,31.715
45,31.06913382818133
2,1, 7,21, 0,15, 0.00,60.00,SummerDesignDay
7,32.0
45,31.432702988747765
2,1, 7,21, 0,16, 0.00,60.00,SummerDesignDay
7,31.43
45,31.64572007587233
2,1, 7,21, 0,17, 0.00,60.00,SummerDesignDay
7,30.328
45,31.698018827923808
2,1, 7,21, 0,18, 0.00,60.00,SummerDesignDay
7,28.922
45,31.625257568740609
2,1, 7,21, 0,19, 0.00,60.00,SummerDesignDay
7,26.927
45,31.213699276999394
2,1, 7,21, 0,20, 0.00,60.00,SummerDesignDay
7,25.027
45,30.522147613665465
2,1, 7,21, 0,21, 0.00,60.00,SummerDesignDay
7,23.544999999999999
45,30.185397702613707
2,1, 7,21, 0,22, 0.00,60.00,SummerDesignDay
7,22.177
45,29.9184319618217
2,1, 7,21, 0,23, 0.00,60.00,SummerDesignDay
7,20.999000000000004
45,29.644778596241765
2,1, 7,21, 0,24, 0.00,60.00,SummerDesignDay
7,19.935000000000004
45,29.36726054139756
1,RUN PERIOD 1,  39.74,-105.18,  -7.00,1829.00
2,1, 1, 1, 0, 1, 0.00,60.00,Tuesday
7,-4.5
45,-0.6400018617821047
2,1, 1, 1, 0, 2, 0.00,60.00,Tuesday
7,-3.0
45,-0.6632275740549465
2,1, 1, 1, 0, 3, 0.00,60.00,Tuesday
7,-3.625
45,-0.7130236483512944
2,1, 1, 1, 0, 4, 0.00,60.00,Tuesday
7,-2.75
45,-0.8055730340997656
2,1, 1, 1, 0, 5, 0.00,60.00,Tuesday
7,-2.0
45,-0.742486217412337
2,1, 1, 1, 0, 6, 0.00,60.00,Tuesday
7,-1.375
45,-0.7384796575800562
2,1, 1, 1, 0, 7, 0.00,60.00,Tuesday
7,-1.0
45,-0.7674371668842219
2,1, 1, 1, 0, 8, 0.00,60.00,Tuesday
7,-1.0
45,-0.600652314347956
2,1, 1, 1, 0, 9, 0.00,60.00,Tuesday
7,-0.375
45,0.30461746825821137
2,1, 1, 1, 0,10, 0.00,60.00,Tuesday
7,1.25
45,0.47432467986173446
2,1, 1, 1, 0,11, 0.00,60.00,Tuesday
7,2.0
45,1.3113366952617334
2,1, 1, 1, 0,12, 0.00,60.00,Tuesday
7,1.375
45,1.5318021540897602
2,1, 1, 1, 0,13, 0.00,60.00,Tuesday
7,2.25
45,1.244735633159802
2,1, 1, 1, 0,14, 0.00,60.00,Tuesday
7,2.375
45,1.162844140398048
2,1, 1, 1, 0,15, 0.00,60.00,Tuesday
7,1.375
45,0.9408106232910009
2,1, 1, 1, 0,16, 0.00,60.00,Tuesday
7,1.0
45,0.7973860376861612
2,1, 1, 1, 0,17, 0.00,60.00,Tuesday
7,0.375
45,0.8183162567396285
2,1, 1, 1, 0,18, 0.00,60.00,Tuesday
7,-0.625
45,0.5795798158580012
2,1, 1, 1, 0,19, 0.00,60.00,Tuesday
7,-1.625
45,0.3966638061538592
2,1, 1, 1, 0,20, 0.00,60.00,Tuesday
7,-3.25
45,0.22439808173286686
2,1, 1, 1, 0,21, 0.00,60.00,Tuesday
7,-4.625
45,0.01591524731370016
2,1, 1, 1, 0,22, 0.00,60.00,Tuesday
7,-5.625
45,-0.18647882637311626
2,1, 1, 1, 0,23, 0.00,60.00,Tuesday
7,-6.625
45,-0.38827252422808647
2,1, 1, 1, 0,24, 0.00,60.00,Tuesday
7,-7.0
45,-0.5646450753802742
2,2, 1, 2, 0, 1, 0.00,60.00,Wednesday
7,-8.25
45,-0.7860659884687591
2,2, 1, 2, 0, 2, 0.00,60.00,Wednesday
7,-9.625
45,-1.2093082878810422
2,2, 1, 2, 0, 3, 0.00,60.00,Wednesday
7,-10.0
45,-1.512204462735529
2,2, 1, 2, 0, 4, 0.00,60.00,Wednesday
7,-10.625
45,-1.6864919322677608
2,2, 1, 2, 0, 5, 0.00,60.00,Wednesday
7,-11.625
45,-1.8996391034341449
2,2, 1, 2, 0, 6, 0.00,60.00,Wednesday
7,-13.875
45,-2.24504205334929
2,2, 1, 2, 0, 7, 0.00,60.00,Wednesday
7,-14.375
45,-2.6326580508550108
2,2, 1, 2, 0, 8, 0.00,60.00,Wednesday
7,-13.375
45,-2.758446640628374
2,2, 1, 2, 0, 9, 0.00,60.00,Wednesday
7,-11.75
45,-2.437887356718842
2,2, 1, 2, 0,10, 0.00,60.00,Wednesday
7,-8.5
45,-2.3362823332581339
2,2, 1, 2, 0,11, 0.00,60.00,Wednesday
7,-6.375
45,-2.1769733565892577
2,2, 1, 2, 0,12, 0.00,60.00,Wednesday
7,-6.0
45,-1.1711437613153338
2,2, 1, 2, 0,13, 0.00,60.00,Wednesday
7,-5.375
45,-0.7195076722677334
2,2, 1, 2, 0,14, 0.00,60.00,Wednesday
7,-5.0
45,-1.132944639350085
2,2, 1, 2, 0,15, 0.00,60.00,Wednesday
7,-5.625
45,-0.4025525258724686
2,2, 1, 2, 0,16, 0.00,60.00,Wednesday
7,-6.625
45,-0.8788097534619888
2,2, 1, 2, 0,17, 0.00,60.00,Wednesday
7,-7.625
45,-1.6232919702356473
2,2, 1, 2, 0,18, 0.00,60.00,Wednesday
7,-8.0
45,-2.083593286959063
2,2, 1, 2, 0,19, 0.00,60.00,Wednesday
7,-8.625
45,-2.2753225835998425
2,2, 1, 2, 0,20, 0.00,60.00,Wednesday
7,-10.25
45,-2.4979808672038676
2,2, 1, 2, 0,21, 0.00,60.00,Wednesday
7,-11.0
45,-2.7632934827099047
2,2, 1, 2, 0,22, 0.00,60.00,Wednesday
7,-11.0
45,-2.988179607751544
2,2, 1, 2, 0,23, 0.00,60.00,Wednesday
7,-11.625
45,-3.1931221313196986
2,2, 1, 2, 0,24, 0.00,60.00,Wednesday
7,-12.0
45,-3.4014854492494548
2,3, 1, 3, 0, 1, 0.00,60.00,Thursday
7,-12.625
45,-3.621502666597936
2,3, 1, 3, 0, 2, 0.00,60.00,Thursday
7,-13.125
45,-3.866749530947166
2,3, 1, 3, 0, 3, 0.00,60.00,Thursday
7,-13.45
45,-4.077636080404503
2,3, 1, 3, 0, 4, 0.00,60.00,Thursday
7,-13.85
45,-4.295158993662499
2,3, 1, 3, 0, 5, 0.00,60.00,Thursday
7,-14.0
45,-4.513467412153155
2,3, 1, 3, 0, 6, 0.00,60.00,Thursday
7,-14.0
45,-4.728339404779058
2,3, 1, 3, 0, 7, 0.00,60.00,Thursday
7,-14.0
45,-4.959450882074745
2,3, 1, 3, 0, 8, 0.00,60.00,Thursday
7,-15.875
45,-5.066957222444565
2,3, 1, 3, 0, 9, 0.00,60.00,Thursday
7,-14.5
45,-4.1658864736069909
2,3, 1, 3, 0,10, 0.00,60.00,Thursday
7,-11.75
45,-3.001347813501224
2,3, 1, 3, 0,11, 0.00,60.00,Thursday
7,-9.75
45,-3.135270862253021
2,3, 1, 3, 0,12, 0.00,60.00,Thursday
7,-8.375
45,-2.972601308910592
2,3, 1, 3, 0,13, 0.00,60.00,Thursday
7,-7.375
45,-2.28694691638966
2,3, 1, 3, 0,14, 0.00,60.00,Thursday
7,-7.0625
45,-1.56282471770942
2,3, 1, 3, 0,15, 0.00,60.00,Thursday
7,-7.5375
45,-1.0163823257824983
2,3, 1, 3, 0,16, 0.00,60.00,Thursday
7,-8.55
45,-0.9961100984743523
2,3, 1, 3, 0,17, 0.00,60.00,Thursday
7,-9.0
45,-2.050455342750208
2,3, 1, 3, 0,18, 0.00,60.00,Thursday
7,-9.0
45,-3.133283226637948
2,3, 1, 3, 0,19, 0.00,60.00,Thursday
7,-9.0
45,-3.379119708361399
2,3, 1, 3, 0,20, 0.00,60.00,Thursday
7,-9.0
45,-3.53014783887307
2,3, 1, 3, 0,21, 0.00,60.00,Thursday
7,-8.375
45,-3.616040553857246
2,3, 1, 3, 0,22, 0.00,60.00,Thursday
7,-8.625
45,-3.689498907138109
2,3, 1, 3, 0,23, 0.00,60.00,Thursday
7,-9.0
45,-3.873809104293707
2,3, 1, 3, 0,24, 0.00,60.00,Thursday
7,-9.0
45,-4.019964419598133
2,4, 1, 4, 0, 1, 0.00,60.00,Friday
7,-8.375
45,-4.136419162064068
2,4, 1, 4, 0, 2, 0.00,60.00,Friday
7,-9.25
45,-4.318390170101267
2,4, 1, 4, 0, 3, 0.00,60.00,Friday
7,-9.375
45,-4.57036310480466
2,4, 1, 4, 0, 4, 0.00,60.00,Friday
7,-9.625
45,-4.603350378314687
2,4, 1, 4, 0, 5, 0.00,60.00,Friday
7,-8.75
45,-4.674055506683047
2,4, 1, 4, 0, 6, 0.00,60.00,Friday
7,-9.0
45,-4.758746284486442
2,4, 1, 4, 0, 7, 0.00,60.00,Friday
7,-10.475
45,-4.972921213974309
2,4, 1, 4, 0, 8, 0.00,60.00,Friday
7,-9.125
45,-5.094714149887204
2,4, 1, 4, 0, 9, 0.00,60.00,Friday
7,-5.5
45,-4.87023540836068
2,4, 1, 4, 0,10, 0.00,60.00,Friday
7,-2.125
45,-3.8738248212897514
2,4, 1, 4, 0,11, 0.00,60.00,Friday
7,-0.375
45,-3.2292547492648815
2,4, 1, 4, 0,12, 0.00,60.00,Friday
7,0.625
45,-3.3988131885196415
2,4, 1, 4, 0,13, 0.00,60.00,Friday
7,1.625
45,-3.2802397366398639
2,4, 1, 4, 0,14, 0.00,60.00,Friday
7,2.625
45,-1.8454324227232629
2,4, 1, 4, 0,15, 0.00,60.00,Friday
7,3.625
45,-1.1529448392544009
2,4, 1, 4, 0,16, 0.00,60.00,Friday
7,2.75
45,-1.0802940415205984
2,4, 1, 4, 0,17, 0.00,60.00,Friday
7,1.375
45,-1.5159553007300575
2,4, 1, 4, 0,18, 0.00,60.00,Friday
7,1.0
45,-2.2466136893398218
2,4, 1, 4, 0,19, 0.00,60.00,Friday
7,1.0
45,-2.460842492552127
2,4, 1, 4, 0,20, 0.00,60.00,Friday
7,-0.25
45,-2.62891718412258
2,4, 1, 4, 0,21, 0.00,60.00,Friday
7,-1.0
45,-2.729817761218622
2,4, 1, 4, 0,22, 0.00,60.00,Friday
7,0.875
45,-2.603053807591005
2,4, 1, 4, 0,23, 0.00,60.00,Friday
7,2.0
45,-2.4057700087412519
2,4, 1, 4, 0,24, 0.00,60.00,Friday
7,2.0
45,-2.322246877508929
2,5, 1, 5, 0, 1, 0.00,60.00,Saturday
7,2.625
45,-2.2625810221271824
2,5, 1, 5, 0, 2, 0.00,60.00,Saturday
7,3.0
45,-2.168147279960958
2,5, 1, 5, 0, 3, 0.00,60.00,Saturday
7,3.625
45,-2.091724500528892
2,5, 1, 5, 0, 4, 0.00,60.00,Saturday
7,4.625
45,-1.885798541179724
2,5, 1, 5, 0, 5, 0.00,60.00,Saturday
7,4.375
45,-1.7125109067387923
2,5, 1, 5, 0, 6, 0.00,60.00,Saturday
7,2.75
45,-1.7238473105610342
2,5, 1, 5, 0, 7, 0.00,60.00,Saturday
7,2.0
45,-1.826191536040476
2,5, 1, 5, 0, 8, 0.00,60.00,Saturday
7,2.625
45,-1.866107040934488
2,5, 1, 5, 0, 9, 0.00,60.00,Saturday
7,3.625
45,-1.6561103617988118
2,5, 1, 5, 0,10, 0.00,60.00,Saturday
7,5.1875
45,-1.2614863888413893
2,5, 1, 5, 0,11, 0.00,60.00,Saturday
7,6.5875
45,-0.09911645605365133
2,5, 1, 5, 0,12, 0.00,60.00,Saturday
7,7.0
45,0.7809512314764877
2,5, 1, 5, 0,13, 0.00,60.00,Saturday
7,7.0
45,1.0695983156017786
2,5, 1, 5, 0,14, 0.00,60.00,Saturday
7,7.625
45,1.1976216328259102
2,5, 1, 5, 0,15, 0.00,60.00,Saturday
7,8.0
45,1.5016563904294047
2,5, 1, 5, 0,16, 0.00,60.00,Saturday
7,7.375
45,1.7768071406354587
2,5, 1, 5, 0,17, 0.00,60.00,Saturday
7,6.375
45,1.5632273759606455
2,5, 1, 5, 0,18, 0.00,60.00,Saturday
7,4.75
45,0.9891666315067369
2,5, 1, 5, 0,19, 0.00,60.00,Saturday
7,3.375
45,0.6491896421360192
2,5, 1, 5, 0,20, 0.00,60.00,Saturday
7,2.375
45,0.31457928695954509
2,5, 1, 5, 0,21, 0.00,60.00,Saturday
7,3.25
45,0.2997034907666185
2,5, 1, 5, 0,22, 0.00,60.00,Saturday
7,0.875
45,0.3683403141505999
2,5, 1, 5, 0,23, 0.00,60.00,Saturday
7,0.25
45,0.23157658664706252
2,5, 1, 5, 0,24, 0.00,60.00,Saturday
7,1.0
45,0.23237726263534426
2,6, 1, 6, 0, 1, 0.00,60.00,Sunday
7,1.625
45,0.22980657454034088
2,6, 1, 6, 0, 2, 0.00,60.00,Sunday
7,2.625
45,0.24537337990776615
2,6, 1, 6, 0, 3, 0.00,60.00,Sunday
7,4.875
45,0.3509278059905566
2,6, 1, 6, 0, 4, 0.00,60.00,Sunday
7,4.75
45,0.612830837744555
2,6, 1, 6, 0, 5, 0.00,60.00,Sunday
7,0.875
45,0.4894594497204167
2,6, 1, 6, 0, 6, 0.00,60.00,Sunday
7,2.125
45,0.2771610943607695
2,6, 1, 6, 0, 7, 0.00,60.00,Sunday
7,3.375
45,0.40390713276083609
2,6, 1, 6, 0, 8, 0.00,60.00,Sunday
7,1.75
45,0.3990184117957226
2,6, 1, 6, 0, 9, 0.00,60.00,Sunday
7,4.125
45,0.9409373974872235
2,6, 1, 6, 0,10, 0.00,60.00,Sunday
7,7.875
45,2.347089463717779
2,6, 1, 6, 0,11, 0.00,60.00,Sunday
7,9.625
45,3.512473877991488
2,6, 1, 6, 0,12, 0.00,60.00,Sunday
7,10.625
45,4.369766728365747
2,6, 1, 6, 0,13, 0.00,60.00,Sunday
7,11.625
45,4.863781497131742
2,6, 1, 6, 0,14, 0.00,60.00,Sunday
7,12.0
45,5.189338554197487
2,6, 1, 6, 0,15, 0.00,60.00,Sunday
7,12.0
45,5.25989934268258
2,6, 1, 6, 0,16, 0.00,60.00,Sunday
7,11.375
45,5.649428221075421
2,6, 1, 6, 0,17, 0.00,60.00,Sunday
7,6.625
45,5.288764650495323
2,6, 1, 6, 0,18, 0.00,60.00,Sunday
7,2.125
45,4.264839524930001
2,6, 1, 6, 0,19, 0.00,60.00,Sunday
7,-0.25
45,3.60408647664078
2,6, 1, 6, 0,20, 0.00,60.00,Sunday
7,-2.25
45,3.243161881089521
2,6, 1, 6, 0,21, 0.00,60.00,Sunday
7,-3.0
45,2.9427282429989476
2,6, 1, 6, 0,22, 0.00,60.00,Sunday
7,-3.0
45,2.862446048385205
2,6, 1, 6, 0,23, 0.00,60.00,Sunday
7,-3.625
45,2.7267262862213696
2,6, 1, 6, 0,24, 0.00,60.00,Sunday
7,-4.0
45,2.5286316171641669
2,7, 1, 7, 0, 1, 0.00,60.00,Monday
7,-4.0
45,2.3173192914274196
2,7, 1, 7, 0, 2, 0.00,60.00,Monday
7,-4.625
45,2.127800781763719
2,7, 1, 7, 0, 3, 0.00,60.00,Monday
7,-4.375
45,1.9416152951056685
2,7, 1, 7, 0, 4, 0.00,60.00,Monday
7,-2.125
45,1.909666270171663
2,7, 1, 7, 0, 5, 0.00,60.00,Monday
7,-1.0
45,1.9351934469840205
2,7, 1, 7, 0, 6, 0.00,60.00,Monday
7,0.25
45,1.9373417163810692
2,7, 1, 7, 0, 7, 0.00,60.00,Monday
7,2.25
45,2.015660512661185
2,7, 1, 7, 0, 8, 0.00,60.00,Monday
7,1.75
45,2.160453804220457
2,7, 1, 7, 0, 9, 0.00,60.00,Monday
7,1.625
45,2.851541171539576
2,7, 1, 7, 0,10, 0.00,60.00,Monday
7,5.125
45,3.961279436432644
2,7, 1, 7, 0,11, 0.00,60.00,Monday
7,8.875
45,5.417476738525722
2,7, 1, 7, 0,12, 0.00,60.00,Monday
7,11.25
45,6.171341581763821
2,7, 1, 7, 0,13, 0.00,60.00,Monday
7,12.625
45,6.398494836232869
2,7, 1, 7, 0,14, 0.00,60.00,Monday
7,13.0
45,6.992373124000337
2,7, 1, 7, 0,15, 0.00,60.00,Monday
7,13.0
45,7.217899225612431
2,7, 1, 7, 0,16, 0.00,60.00,Monday
7,9.25
45,7.087625729384804
2,7, 1, 7, 0,17, 0.00,60.00,Monday
7,5.125
45,6.457146356650093
2,7, 1, 7, 0,18, 0.00,60.00,Monday
7,2.75
45,5.666203965537839
2,7, 1, 7, 0,19, 0.00,60.00,Monday
7,0.125
45,5.064289585921506
2,7, 1, 7, 0,20, 0.00,60.00,Monday
7,-1.625
45,4.701666363510929
2,7, 1, 7, 0,21, 0.00,60.00,Monday
7,-1.375
45,4.515913541862294
2,7, 1, 7, 0,22, 0.00,60.00,Monday
7,-1.0
45,4.396350516706358
2,7, 1, 7, 0,23, 0.00,60.00,Monday
7,-1.0
45,4.242753693632247
2,7, 1, 7, 0,24, 0.00,60.00,Monday
7,-1.625
45,4.085937873927005
2,8, 1, 8, 0, 1, 0.00,60.00,Tuesday
7,-1.375
45,3.955067740976946
2,8, 1, 8, 0, 2, 0.00,60.00,Tuesday
7,-1.625
45,3.853552635416767
2,8, 1, 8, 0, 3, 0.00,60.00,Tuesday
7,-1.375
45,3.697791599616284
2,8, 1, 8, 0, 4, 0.00,60.00,Tuesday
7,-1.0
45,3.616158495051785
2,8, 1, 8, 0, 5, 0.00,60.00,Tuesday
7,-1.625
45,3.485078367576735
2,8, 1, 8, 0, 6, 0.00,60.00,Tuesday
7,-2.0
45,3.3078848360754247
2,8, 1, 8, 0, 7, 0.00,60.00,Tuesday
7,-2.0
45,3.1767973676755147
2,8, 1, 8, 0, 8, 0.00,60.00,Tuesday
7,-2.0
45,3.201056068841452
2,8, 1, 8, 0, 9, 0.00,60.00,Tuesday
7,-2.625
45,3.833068544834446
2,8, 1, 8, 0,10, 0.00,60.00,Tuesday
7,-2.375
45,3.925896366367752
2,8, 1, 8, 0,11, 0.00,60.00,Tuesday
7,-2.0
45,3.575848655234198
2,8, 1, 8, 0,12, 0.00,60.00,Tuesday
7,-2.0
45,3.4897134355300056
2,8, 1, 8, 0,13, 0.00,60.00,Tuesday
7,-1.375
45,3.6515578904882739
2,8, 1, 8, 0,14, 0.00,60.00,Tuesday
7,0.25
45,4.173644598326954
2,8, 1, 8, 0,15, 0.00,60.00,Tuesday
7,1.0
45,5.089999378713054
2,8, 1, 8, 0,16, 0.00,60.00,Tuesday
7,0.375
45,5.388098541820486
2,8, 1, 8, 0,17, 0.00,60.00,Tuesday
7,-1.875
45,4.715028728480306
2,8, 1, 8, 0,18, 0.00,60.00,Tuesday
7,-4.25
45,3.8449475241843298
2,8, 1, 8, 0,19, 0.00,60.00,Tuesday
7,-5.625
45,3.200517491205278
2,8, 1, 8, 0,20, 0.00,60.00,Tuesday
7,-6.0
45,2.891762045591294
2,8, 1, 8, 0,21, 0.00,60.00,Tuesday
7,-6.0
45,2.641749889038886
2,8, 1, 8, 0,22, 0.00,60.00,Tuesday
7,-4.75
45,2.487681175517397
2,8, 1, 8, 0,23, 0.00,60.00,Tuesday
7,-4.625
45,2.423484048151554
2,8, 1, 8, 0,24, 0.00,60.00,Tuesday
7,-4.375
45,2.22939183771554
2,9, 1, 9, 0, 1, 0.00,60.00,Wednesday
7,-5.25
45,2.054469171388543
2,9, 1, 9, 0, 2, 0.00,60.00,Wednesday
7,-4.125
45,1.842840404158114
2,9, 1, 9, 0, 3, 0.00,60.00,Wednesday
7,-2.375
45,1.8447917974777455
2,9, 1, 9, 0, 4, 0.00,60.00,Wednesday
7,-2.0
45,1.7556853068814902
2,9, 1, 9, 0, 5, 0.00,60.00,Wednesday
7,-2.0
45,1.6297475386150833
2,9, 1, 9, 0, 6, 0.00,60.00,Wednesday
7,-3.25
45,1.4481716783228845
2,9, 1, 9, 0, 7, 0.00,60.00,Wednesday
7,-5.25
45,1.1045431114281903
2,9, 1, 9, 0, 8, 0.00,60.00,Wednesday
7,-4.125
45,1.091998155739402
2,9, 1, 9, 0, 9, 0.00,60.00,Wednesday
7,-0.5
45,2.6264725895956939
2,9, 1, 9, 0,10, 0.00,60.00,Wednesday
7,2.875
45,3.897240555282294
2,9, 1, 9, 0,11, 0.00,60.00,Wednesday
7,5.25
45,4.701193567324532
2,9, 1, 9, 0,12, 0.00,60.00,Wednesday
7,7.25
45,5.0405560451851729
2,9, 1, 9, 0,13, 0.00,60.00,Wednesday
7,8.0
45,5.2706344767973569
2,9, 1, 9, 0,14, 0.00,60.00,Wednesday
7,8.0
45,5.515917872181898
2,9, 1, 9, 0,15, 0.00,60.00,Wednesday
7,8.625
45,5.7202406282655009
2,9, 1, 9, 0,16, 0.00,60.00,Wednesday
7,7.75
45,5.906571984404044
2,9, 1, 9, 0,17, 0.00,60.00,Wednesday
7,4.5
45,5.466348562389438
2,9, 1, 9, 0,18, 0.00,60.00,Wednesday
7,2.375
45,4.52328181808838
2,9, 1, 9, 0,19, 0.00,60.00,Wednesday
7,1.4375
45,4.021116393580345
2,9, 1, 9, 0,20, 0.00,60.00,Wednesday
7,-0.14999999999999998
45,3.7782921222054157
2,9, 1, 9, 0,21, 0.00,60.00,Wednesday
7,0.4125
45,3.6112945607376507
2,9, 1, 9, 0,22, 0.00,60.00,Wednesday
7,1.2
45,3.5816736814212297
2,9, 1, 9, 0,23, 0.00,60.00,Wednesday
7,1.8250000000000002
45,3.583673893226919
2,9, 1, 9, 0,24, 0.00,60.00,Wednesday
7,1.6375
45,3.554651394237771
2,10, 1,10, 0, 1, 0.00,60.00,Thursday
7,1.3
45,3.4201978063506028
2,10, 1,10, 0, 2, 0.00,60.00,Thursday
7,3.2375000000000004
45,3.390790712140139
2,10, 1,10, 0, 3, 0.00,60.00,Thursday
7,4.4
45,3.553573834478912
2,10, 1,10, 0, 4, 0.00,60.00,Thursday
7,3.1500000000000005
45,3.5242381185308808
2,10, 1,10, 0, 5, 0.00,60.00,Thursday
7,4.3375
45,3.4119799597868067
2,10, 1,10, 0, 6, 0.00,60.00,Thursday
7,4.8125
45,3.4893283744441385
2,10, 1,10, 0, 7, 0.00,60.00,Thursday
7,3.9
45,3.4187372104071018
2,10, 1,10, 0, 8, 0.00,60.00,Thursday
7,4.85
45,3.539804560990307
2,10, 1,10, 0, 9, 0.00,60.00,Thursday
7,6.85
45,4.91357811767372
2,10, 1,10, 0,10, 0.00,60.00,Thursday
7,9.537499999999998
45,6.14344191171722
2,10, 1,10, 0,11, 0.00,60.00,Thursday
7,10.7
45,6.819123563479789
2,10, 1,10, 0,12, 0.00,60.00,Thursday
7,10.2
45,7.154382039769805
2,10, 1,10, 0,13, 0.00,60.00,Thursday
7,9.212500000000003
45,7.369978549588027
2,10, 1,10, 0,14, 0.00,60.00,Thursday
7,6.300000000000001
45,7.574725983261761
2,10, 1,10, 0,15, 0.00,60.00,Thursday
7,4.2375
45,7.706207580801543
2,10, 1,10, 0,16, 0.00,60.00,Thursday
7,3.275
45,7.618282318592487
2,10, 1,10, 0,17, 0.00,60.00,Thursday
7,2.3375
45,6.944209792381281
2,10, 1,10, 0,18, 0.00,60.00,Thursday
7,1.375
45,6.062233324039753
2,10, 1,10, 0,19, 0.00,60.00,Thursday
7,1.0
45,5.754577197545108
2,10, 1,10, 0,20, 0.00,60.00,Thursday
7,2.25
45,5.675246959998018
2,10, 1,10, 0,21, 0.00,60.00,Thursday
7,3.0
45,5.66380674522615
2,10, 1,10, 0,22, 0.00,60.00,Thursday
7,3.625
45,5.567109054645688
2,10, 1,10, 0,23, 0.00,60.00,Thursday
7,4.0
45,5.5146199799389639
2,10, 1,10, 0,24, 0.00,60.00,Thursday
7,5.25
45,5.448887055861718
2,11, 1,11, 0, 1, 0.00,60.00,Friday
7,4.75
45,5.308473853217686
2,11, 1,11, 0, 2, 0.00,60.00,Friday
7,2.75
45,5.1826045990830729
2,11, 1,11, 0, 3, 0.00,60.00,Friday
7,4.5
45,5.107235685499149
2,11, 1,11, 0, 4, 0.00,60.00,Friday
7,4.125
45,5.159853404668574
2,11, 1,11, 0, 5, 0.00,60.00,Friday
7,2.375
45,5.007583482557483
2,11, 1,11, 0, 6, 0.00,60.00,Friday
7,0.75
45,4.797652219158584
2,11, 1,11, 0, 7, 0.00,60.00,Friday
7,4.375
45,4.701144385976209
2,11, 1,11, 0, 8, 0.00,60.00,Friday
7,4.5
45,4.9801926856529
2,11, 1,11, 0, 9, 0.00,60.00,Friday
7,6.125
45,5.792835401899027
2,11, 1,11, 0,10, 0.00,60.00,Friday
7,10.5
45,6.510796303813763
2,11, 1,11, 0,11, 0.00,60.00,Friday
7,13.25
45,7.150785728076649
2,11, 1,11, 0,12, 0.00,60.00,Friday
7,15.25
45,7.428535359576076
2,11, 1,11, 0,13, 0.00,60.00,Friday
7,14.75
45,7.837442067757255
2,11, 1,11, 0,14, 0.00,60.00,Friday
7,14.625
45,7.981667151342211
2,11, 1,11, 0,15, 0.00,60.00,Friday
7,16.25
45,8.211736968240843
2,11, 1,11, 0,16, 0.00,60.00,Friday
7,15.75
45,8.32818052098378
2,11, 1,11, 0,17, 0.00,60.00,Friday
7,11.25
45,7.9440618172001919
2,11, 1,11, 0,18, 0.00,60.00,Friday
7,8.375
45,7.464751186643132
2,11, 1,11, 0,19, 0.00,60.00,Friday
7,8.0
45,7.241284443191834
2,11, 1,11, 0,20, 0.00,60.00,Friday
7,6.75
45,7.11942610917904
2,11, 1,11, 0,21, 0.00,60.00,Friday
7,6.625
45,6.993464880035539
2,11, 1,11, 0,22, 0.00,60.00,Friday
7,7.0
45,6.967206820011306
2,11, 1,11, 0,23, 0.00,60.00,Friday
7,5.75
45,6.779590774283874
2,11, 1,11, 0,24, 0.00,60.00,Friday
7,5.625
45,6.664566277852598
2,12, 1,12, 0, 1, 0.00,60.00,Saturday
7,4.125
45,6.573744147974758
2,12, 1,12, 0, 2, 0.00,60.00,Saturday
7,3.0
45,6.358657435966612
2,12, 1,12, 0, 3, 0.00,60.00,Saturday
7,3.625
45,6.263677331744573
2,12, 1,12, 0, 4, 0.00,60.00,Saturday
7,1.5
45,6.067437949508464
2,12, 1,12, 0, 5, 0.00,60.00,Saturday
7,0.625
45,5.750758468673183
2,12, 1,12, 0, 6, 0.00,60.00,Saturday
7,1.625
45,5.685759432854383
2,12, 1,12, 0, 7, 0.00,60.00,Saturday
7,2.625
45,5.589937759483332
2,12, 1,12, 0, 8, 0.00,60.00,Saturday
7,0.5
45,5.4525303105835889
2,12, 1,12, 0, 9, 0.00,60.00,Saturday
7,3.375
45,5.857413381282379
2,12, 1,12, 0,10, 0.00,60.00,Saturday
7,6.625
45,6.186577529834637
2,12, 1,12, 0,11, 0.00,60.00,Saturday
7,7.0
45,6.359197558807721
2,12, 1,12, 0,12, 0.00,60.00,Saturday
7,7.0625
45,6.453754383815409
2,12, 1,12, 0,13, 0.00,60.00,Saturday
7,7.0375
45,6.641284347923198
2,12, 1,12, 0,14, 0.00,60.00,Saturday
7,7.0
45,7.348399028126854
2,12, 1,12, 0,15, 0.00,60.00,Saturday
7,7.0
45,7.940565778391565
2,12, 1,12, 0,16, 0.00,60.00,Saturday
7,5.125
45,7.545968996177408
2,12, 1,12, 0,17, 0.00,60.00,Saturday
7,2.75
45,7.014913665771288
2,12, 1,12, 0,18, 0.00,60.00,Saturday
7,0.75
45,6.326970140576644
2,12, 1,12, 0,19, 0.00,60.00,Saturday
7,-1.25
45,5.855308541969105
2,12, 1,12, 0,20, 0.00,60.00,Saturday
7,-2.625
45,5.548940124910248
2,12, 1,12, 0,21, 0.00,60.00,Saturday
7,-2.375
45,5.337056446854819
2,12, 1,12, 0,22, 0.00,60.00,Saturday
7,-2.0
45,5.207792350989425
2,12, 1,12, 0,23, 0.00,60.00,Saturday
7,-2.0
45,5.051445122093051
2,12, 1,12, 0,24, 0.00,60.00,Saturday
7,-2.0
45,4.878543423194788
2,13, 1,13, 0, 1, 0.00,60.00,Sunday
7,-0.75
45,4.7806261437602999
2,13, 1,13, 0, 2, 0.00,60.00,Sunday
7,-0.625
45,4.709374551432216
2,13, 1,13, 0, 3, 0.00,60.00,Sunday
7,-1.0
45,4.493309804119141
2,13, 1,13, 0, 4, 0.00,60.00,Sunday
7,-1.625
45,4.26656411329966
2,13, 1,13, 0, 5, 0.00,60.00,Sunday
7,-2.625
45,4.052867087910439
2,13, 1,13, 0, 6, 0.00,60.00,Sunday
7,-1.75
45,3.8520215952504679
2,13, 1,13, 0, 7, 0.00,60.00,Sunday
7,-2.25
45,3.6201791317907796
2,13, 1,13, 0, 8, 0.00,60.00,Sunday
7,-1.75
45,3.671445367245086
2,13, 1,13, 0, 9, 0.00,60.00,Sunday
7,-0.375
45,4.651561030469265
2,13, 1,13, 0,10, 0.00,60.00,Sunday
7,0.625
45,4.623334773306561
2,13, 1,13, 0,11, 0.00,60.00,Sunday
7,1.625
45,4.3247345284046549
2,13, 1,13, 0,12, 0.00,60.00,Sunday
7,3.25
45,4.798738514307523
2,13, 1,13, 0,13, 0.00,60.00,Sunday
7,3.375
45,4.96660087092185
2,13, 1,13, 0,14, 0.00,60.00,Sunday
7,1.75
45,5.3553296783854
2,13, 1,13, 0,15, 0.00,60.00,Sunday
7,1.625
45,5.865105092016053
2,13, 1,13, 0,16, 0.00,60.00,Sunday
7,2.0
45,6.205823112728261
2,13, 1,13, 0,17, 0.00,60.00,Sunday
7,1.375
45,5.866104703990715
2,13, 1,13, 0,18, 0.00,60.00,Sunday
7,-1.5
45,4.651546939288794
2,13, 1,13, 0,19, 0.00,60.00,Sunday
7,-1.75
45,4.223401182472814
2,13, 1,13, 0,20, 0.00,60.00,Sunday
7,-2.875
45,4.154961680055742
2,13, 1,13, 0,21, 0.00,60.00,Sunday
7,-4.0
45,3.8026500064930128
2,13, 1,13, 0,22, 0.00,60.00,Sunday
7,-4.625
45,3.573230367373221
2,13, 1,13, 0,23, 0.00,60.00,Sunday
7,-6.25
45,3.2559226070743829
2,13, 1,13, 0,24, 0.00,60.00,Sunday
7,-6.375
45,2.870758860323967
2,14, 1,14, 0, 1, 0.00,60.00,Monday
7,-5.375
45,2.6842614334454417
2,14, 1,14, 0, 2, 0.00,60.00,Monday
7,-4.375
45,2.6706595096103866
2,14, 1,14, 0, 3, 0.00,60.00,Monday
7,-4.625
45,2.532527307521968
2,14, 1,14, 0, 4, 0.00,60.00,Monday
7,-5.625
45,2.2749750040189786
2,14, 1,14, 0, 5, 0.00,60.00,Monday
7,-5.375
45,2.070233799870123
2,14, 1,14, 0, 6, 0.00,60.00,Monday
7,-5.0
45,1.9415623696761749
2,14, 1,14, 0, 7, 0.00,60.00,Monday
7,-4.375
45,1.813418745013941
2,14, 1,14, 0, 8, 0.00,60.00,Monday
7,-2.125
45,1.9021440743284735
2,14, 1,14, 0, 9, 0.00,60.00,Monday
7,2.125
45,2.773706796233908
2,14, 1,14, 0,10, 0.00,60.00,Monday
7,5.875
45,3.514871187487344
2,14, 1,14, 0,11, 0.00,60.00,Monday
7,8.25
45,3.496538984475815
2,14, 1,14, 0,12, 0.00,60.00,Monday
7,9.625
45,3.8478858222943508
2,14, 1,14, 0,13, 0.00,60.00,Monday
7,10.0
45,3.9954533278452359
2,14, 1,14, 0,14, 0.00,60.00,Monday
7,10.625
45,4.524781209782733
2,14, 1,14, 0,15, 0.00,60.00,Monday
7,12.25
45,5.329825449861654
2,14, 1,14, 0,16, 0.00,60.00,Monday
7,12.375
45,5.7507859206500229
2,14, 1,14, 0,17, 0.00,60.00,Monday
7,10.125
45,5.551378709501293
2,14, 1,14, 0,18, 0.00,60.00,Monday
7,5.875
45,4.785105815597545
2,14, 1,14, 0,19, 0.00,60.00,Monday
7,6.5
45,4.333033149193181
2,14, 1,14, 0,20, 0.00,60.00,Monday
7,7.375
45,4.329420293453031
2,14, 1,14, 0,21, 0.00,60.00,Monday
7,6.375
45,4.309573588391528
2,14, 1,14, 0,22, 0.00,60.00,Monday
7,4.125
45,4.182920350629525
2,14, 1,14, 0,23, 0.00,60.00,Monday
7,6.75
45,4.139979468794118
2,14, 1,14, 0,24, 0.00,60.00,Monday
7,8.25
45,4.385043482856213
2,15, 1,15, 0, 1, 0.00,60.00,Tuesday
7,7.3
45,4.420731503245912
2,15, 1,15, 0, 2, 0.00,60.00,Tuesday
7,6.375
45,4.35012844321407
2,15, 1,15, 0, 3, 0.00,60.00,Tuesday
7,7.25
45,4.2967861487256429
2,15, 1,15, 0, 4, 0.00,60.00,Tuesday
7,7.375
45,4.369472015704468
2,15, 1,15, 0, 5, 0.00,60.00,Tuesday
7,6.375
45,4.352851813254552
2,15, 1,15, 0, 6, 0.00,60.00,Tuesday
7,2.875
45,4.162299353892276
2,15, 1,15, 0, 7, 0.00,60.00,Tuesday
7,1.625
45,3.8270570178950367
2,15, 1,15, 0, 8, 0.00,60.00,Tuesday
7,1.375
45,3.874521862620302
2,15, 1,15, 0, 9, 0.00,60.00,Tuesday
7,4.75
45,4.819262904303346
2,15, 1,15, 0,10, 0.00,60.00,Tuesday
7,8.25
45,5.967116788923716
2,15, 1,15, 0,11, 0.00,60.00,Tuesday
7,11.5
45,6.247562609250721
2,15, 1,15, 0,12, 0.00,60.00,Tuesday
7,14.25
45,6.477565915672878
2,15, 1,15, 0,13, 0.00,60.00,Tuesday
7,13.75
45,6.6722623986154769
2,15, 1,15, 0,14, 0.00,60.00,Tuesday
7,12.375
45,6.947682217949414
2,15, 1,15, 0,15, 0.00,60.00,Tuesday
7,11.375
45,7.2399310513326
2,15, 1,15, 0,16, 0.00,60.00,Tuesday
7,11.625
45,7.348573539645868
2,15, 1,15, 0,17, 0.00,60.00,Tuesday
7,10.125
45,7.191299341529069
2,15, 1,15, 0,18, 0.00,60.00,Tuesday
7,8.375
45,6.733220073434343
2,15, 1,15, 0,19, 0.00,60.00,Tuesday
7,8.0
45,6.543652320764021
2,15, 1,15, 0,20, 0.00,60.00,Tuesday
7,6.75
45,6.428711611550057
2,15, 1,15, 0,21, 0.00,60.00,Tuesday
7,6.625
45,6.265316890038894
2,15, 1,15, 0,22, 0.00,60.00,Tuesday
7,4.5
45,6.178128480030706
2,15, 1,15, 0,23, 0.00,60.00,Tuesday
7,2.375
45,5.821227932152521
2,15, 1,15, 0,24, 0.00,60.00,Tuesday
7,3.875
45,5.691049847982956
2,16, 1,16, 0, 1, 0.00,60.00,Wednesday
7,2.5
45,5.726088760278701
2,16, 1,16, 0, 2, 0.00,60.00,Wednesday
7,1.0
45,5.485176785732817
2,16, 1,16, 0, 3, 0.00,60.00,Wednesday
7,-0.875
45,5.27283680665137
2,16, 1,16, 0, 4, 0.00,60.00,Wednesday
7,-2.625
45,4.9183788675570379
2,16, 1,16, 0, 5, 0.00,60.00,Wednesday
7,-1.75
45,4.718508029844648
2,16, 1,16, 0, 6, 0.00,60.00,Wednesday
7,-0.375
45,4.697657020583044
2,16, 1,16, 0, 7, 0.00,60.00,Wednesday
7,-0.625
45,4.5710047248545229
2,16, 1,16, 0, 8, 0.00,60.00,Wednesday
7,-1.0
45,4.547384043840368
2,16, 1,16, 0, 9, 0.00,60.00,Wednesday
7,2.125
45,5.266432994160964
2,16, 1,16, 0,10, 0.00,60.00,Wednesday
7,5.875
45,6.41592809942231
2,16, 1,16, 0,11, 0.00,60.00,Wednesday
7,8.25
45,7.133644203489253
2,16, 1,16, 0,12, 0.00,60.00,Wednesday
7,9.625
45,6.899564632321308
2,16, 1,16, 0,13, 0.00,60.00,Wednesday
7,8.125
45,6.783139067965118
2,16, 1,16, 0,14, 0.00,60.00,Wednesday
7,9.5
45,8.153347559559256
2,16, 1,16, 0,15, 0.00,60.00,Wednesday
7,12.25
45,8.869726268429313
2,16, 1,16, 0,16, 0.00,60.00,Wednesday
7,11.75
45,8.724036197787506
2,16, 1,16, 0,17, 0.00,60.00,Wednesday
7,8.5
45,7.986722901237227
2,16, 1,16, 0,18, 0.00,60.00,Wednesday
7,7.0
45,7.314518164623004
2,16, 1,16, 0,19, 0.00,60.00,Wednesday
7,7.0
45,7.14240717783403
2,16, 1,16, 0,20, 0.00,60.00,Wednesday
7,5.125
45,6.988579052940599
2,16, 1,16, 0,21, 0.00,60.00,Wednesday
7,4.0
45,6.680599624125023
2,16, 1,16, 0,22, 0.00,60.00,Wednesday
7,-0.375
45,6.390272036643053